<?xml version="1.0" encoding="UTF-8"?>

<!-- generated on 2025-01-30 21:43:51 by Eclipse SUMO GUI Version 1.21.0
<sumoConfiguration xmlns:xsi="http://www.w3.org/2001/XMLSchema-instance" xsi:noNamespaceSchemaLocation="http://sumo.dlr.de/xsd/sumoConfiguration.xsd">

    <input>
        <net-file value="maps/city1.net.xml"/>
        <route-files value="maps/city1.rou.xml"/>
    </input>

    <output>
        <tripinfo-output value="tripinfo.xml"/>
    </output>

    <time>
        <begin value="0"/>
        <end value="200"/>
    </time>

    <report>
        <verbose value="true"/>
        <no-step-log value="true"/>
    </report>

    <traci_server>
        <remote-port value="57606"/>
    </traci_server>

</sumoConfiguration>
-->

<tripinfos xmlns:xsi="http://www.w3.org/2001/XMLSchema-instance" xsi:noNamespaceSchemaLocation="http://sumo.dlr.de/xsd/tripinfo_file.xsd">
    <tripinfo id="13" depart="13.00" departLane="-gneE14_0" departPos="5.10" departSpeed="0.00" departDelay="0.00" arrival="23.00" arrivalLane="-gneE14_0" arrivalPos="89.60" arrivalSpeed="14.27" duration="10.00" routeLength="84.50" waitingTime="0.00" waitingCount="0" stopTime="0.00" timeLoss="3.61" rerouteNo="0" devices="tripinfo_13" vType="DEFAULT_VEHTYPE" speedFactor="1.09" vaporized=""/>
    <tripinfo id="30" depart="30.00" departLane="gneE9_0" departPos="5.10" departSpeed="0.00" departDelay="0.00" arrival="65.00" arrivalLane="gneE2_0" arrivalPos="185.60" arrivalSpeed="12.48" duration="35.00" routeLength="379.13" waitingTime="0.00" waitingCount="0" stopTime="0.00" timeLoss="5.62" rerouteNo="0" devices="tripinfo_30" vType="DEFAULT_VEHTYPE" speedFactor="0.97" vaporized=""/>
    <tripinfo id="7" depart="7.00" departLane="gneE19_0" departPos="5.10" departSpeed="0.00" departDelay="0.00" arrival="84.00" arrivalLane="gneE11_0" arrivalPos="92.80" arrivalSpeed="11.17" duration="77.00" routeLength="678.58" waitingTime="1.00" waitingCount="1" stopTime="0.00" timeLoss="15.14" rerouteNo="0" devices="tripinfo_7" vType="DEFAULT_VEHTYPE" speedFactor="0.83" vaporized=""/>
    <tripinfo id="52" depart="52.00" departLane="-gneE29_0" departPos="5.10" departSpeed="0.00" departDelay="0.00" arrival="89.00" arrivalLane="gneE21_0" arrivalPos="87.62" arrivalSpeed="15.29" duration="37.00" routeLength="413.15" waitingTime="0.00" waitingCount="0" stopTime="0.00" timeLoss="8.75" rerouteNo="0" devices="tripinfo_52" vType="DEFAULT_VEHTYPE" speedFactor="1.10" vaporized=""/>
    <tripinfo id="90" depart="90.00" departLane="gneE23_0" departPos="5.10" departSpeed="0.00" departDelay="0.00" arrival="100.00" arrivalLane="gneE23_0" arrivalPos="89.60" arrivalSpeed="13.27" duration="10.00" routeLength="84.50" waitingTime="0.00" waitingCount="0" stopTime="0.00" timeLoss="3.24" rerouteNo="0" devices="tripinfo_90" vType="DEFAULT_VEHTYPE" speedFactor="1.02" vaporized=""/>
    <tripinfo id="4" depart="4.00" departLane="-gneE5_0" departPos="5.10" departSpeed="0.00" departDelay="0.00" arrival="106.00" arrivalLane="-gneE1_0" arrivalPos="85.60" arrivalSpeed="12.78" duration="102.00" routeLength="374.92" waitingTime="61.00" waitingCount="2" stopTime="0.00" timeLoss="74.24" rerouteNo="0" devices="tripinfo_4" vType="DEFAULT_VEHTYPE" speedFactor="1.01" vaporized=""/>
    <tripinfo id="26" depart="26.00" departLane="-gneE29_0" departPos="5.10" departSpeed="0.00" departDelay="0.00" arrival="108.00" arrivalLane="gneE5_0" arrivalPos="85.60" arrivalSpeed="12.75" duration="82.00" routeLength="707.67" waitingTime="7.00" waitingCount="1" stopTime="0.00" timeLoss="23.57" rerouteNo="0" devices="tripinfo_26" vType="DEFAULT_VEHTYPE" speedFactor="0.94" vaporized=""/>
    <tripinfo id="0" depart="0.00" departLane="gneE18_0" departPos="5.10" departSpeed="0.00" departDelay="0.00" arrival="109.00" arrivalLane="-gneE1_0" arrivalPos="85.60" arrivalSpeed="13.96" duration="109.00" routeLength="682.01" waitingTime="37.00" waitingCount="3" stopTime="0.00" timeLoss="60.22" rerouteNo="0" devices="tripinfo_0" vType="DEFAULT_VEHTYPE" speedFactor="1.06" vaporized=""/>
    <tripinfo id="28" depart="28.00" departLane="-gneE22_0" departPos="5.10" departSpeed="0.00" departDelay="0.00" arrival="111.00" arrivalLane="gneE26_0" arrivalPos="92.80" arrivalSpeed="13.51" duration="83.00" routeLength="787.27" waitingTime="9.00" waitingCount="1" stopTime="0.00" timeLoss="24.54" rerouteNo="0" devices="tripinfo_28" vType="DEFAULT_VEHTYPE" speedFactor="1.02" vaporized=""/>
    <tripinfo id="8" depart="8.00" departLane="-gneE26_0" departPos="5.10" departSpeed="0.00" departDelay="0.00" arrival="118.00" arrivalLane="gneE14_0" arrivalPos="89.60" arrivalSpeed="14.24" duration="110.00" routeLength="391.59" waitingTime="64.00" waitingCount="2" stopTime="0.00" timeLoss="82.47" rerouteNo="0" devices="tripinfo_8" vType="DEFAULT_VEHTYPE" speedFactor="1.05" vaporized=""/>
    <tripinfo id="20" depart="20.00" departLane="gneE22_0" departPos="5.10" departSpeed="0.00" departDelay="0.00" arrival="120.00" arrivalLane="-gneE10_0" arrivalPos="96.80" arrivalSpeed="6.12" duration="100.00" routeLength="579.33" waitingTime="39.00" waitingCount="1" stopTime="0.00" timeLoss="53.80" rerouteNo="0" devices="tripinfo_20" vType="DEFAULT_VEHTYPE" speedFactor="0.93" vaporized=""/>
    <tripinfo id="24" depart="24.00" departLane="gneE18_0" departPos="5.10" departSpeed="0.00" departDelay="0.00" arrival="121.00" arrivalLane="-gneE35_0" arrivalPos="292.80" arrivalSpeed="11.63" duration="97.00" routeLength="889.00" waitingTime="3.00" waitingCount="1" stopTime="0.00" timeLoss="20.66" rerouteNo="0" devices="tripinfo_24" vType="DEFAULT_VEHTYPE" speedFactor="0.88" vaporized=""/>
    <tripinfo id="29" depart="31.00" departLane="-gneE22_0" departPos="5.10" departSpeed="0.00" departDelay="2.00" arrival="122.00" arrivalLane="-gneE38_0" arrivalPos="296.80" arrivalSpeed="13.75" duration="91.00" routeLength="883.56" waitingTime="7.00" waitingCount="1" stopTime="0.00" timeLoss="25.81" rerouteNo="0" devices="tripinfo_29" vType="DEFAULT_VEHTYPE" speedFactor="1.01" vaporized=""/>
    <tripinfo id="6" depart="6.00" departLane="-gneE10_0" departPos="5.10" departSpeed="0.00" departDelay="0.00" arrival="123.00" arrivalLane="-gneE21_0" arrivalPos="87.62" arrivalSpeed="13.99" duration="117.00" routeLength="780.42" waitingTime="37.00" waitingCount="1" stopTime="0.00" timeLoss="60.80" rerouteNo="0" devices="tripinfo_6" vType="DEFAULT_VEHTYPE" speedFactor="1.03" vaporized=""/>
    <tripinfo id="53" depart="53.00" departLane="-gneE18_0" departPos="5.10" departSpeed="0.00" departDelay="0.00" arrival="124.00" arrivalLane="-gneE5_0" arrivalPos="85.60" arrivalSpeed="9.38" duration="71.00" routeLength="275.23" waitingTime="31.00" waitingCount="2" stopTime="0.00" timeLoss="47.55" rerouteNo="0" devices="tripinfo_53" vType="DEFAULT_VEHTYPE" speedFactor="0.90" vaporized=""/>
    <tripinfo id="97" depart="97.00" departLane="-gneE6_0" departPos="5.10" departSpeed="0.00" departDelay="0.00" arrival="126.00" arrivalLane="gneE34_0" arrivalPos="85.60" arrivalSpeed="13.42" duration="29.00" routeLength="282.33" waitingTime="0.00" waitingCount="0" stopTime="0.00" timeLoss="8.82" rerouteNo="0" devices="tripinfo_97" vType="DEFAULT_VEHTYPE" speedFactor="1.06" vaporized=""/>
    <tripinfo id="9" depart="9.00" departLane="gneE3_0" departPos="5.10" departSpeed="0.00" departDelay="0.00" arrival="127.00" arrivalLane="-gneE0_0" arrivalPos="92.80" arrivalSpeed="11.76" duration="118.00" routeLength="671.38" waitingTime="39.00" waitingCount="1" stopTime="0.00" timeLoss="59.83" rerouteNo="0" devices="tripinfo_9" vType="DEFAULT_VEHTYPE" speedFactor="0.89" vaporized=""/>
    <tripinfo id="88" depart="88.00" departLane="-gneE17_0" departPos="5.10" departSpeed="0.00" departDelay="0.00" arrival="128.00" arrivalLane="-gneE5_0" arrivalPos="85.60" arrivalSpeed="9.12" duration="40.00" routeLength="182.33" waitingTime="10.00" waitingCount="1" stopTime="0.00" timeLoss="24.38" rerouteNo="0" devices="tripinfo_88" vType="DEFAULT_VEHTYPE" speedFactor="0.91" vaporized=""/>
    <tripinfo id="25" depart="25.00" departLane="-gneE34_0" departPos="5.10" departSpeed="0.00" departDelay="0.00" arrival="132.00" arrivalLane="-gneE22_0" arrivalPos="85.60" arrivalSpeed="5.47" duration="107.00" routeLength="580.18" waitingTime="40.00" waitingCount="2" stopTime="0.00" timeLoss="60.92" rerouteNo="0" devices="tripinfo_25" vType="DEFAULT_VEHTYPE" speedFactor="0.94" vaporized=""/>
    <tripinfo id="33" depart="33.00" departLane="-gneE26_0" departPos="5.10" departSpeed="0.00" departDelay="0.00" arrival="133.00" arrivalLane="-gneE10_0" arrivalPos="96.80" arrivalSpeed="10.52" duration="100.00" routeLength="491.90" waitingTime="36.00" waitingCount="1" stopTime="0.00" timeLoss="56.22" rerouteNo="0" devices="tripinfo_33" vType="DEFAULT_VEHTYPE" speedFactor="0.83" vaporized=""/>
    <tripinfo id="10" depart="12.00" departLane="gneE3_0" departPos="5.10" departSpeed="0.00" departDelay="2.00" arrival="134.00" arrivalLane="gneE24_0" arrivalPos="85.60" arrivalSpeed="12.59" duration="122.00" routeLength="669.65" waitingTime="41.00" waitingCount="2" stopTime="0.00" timeLoss="67.77" rerouteNo="0" devices="tripinfo_10" vType="DEFAULT_VEHTYPE" speedFactor="0.94" vaporized=""/>
    <tripinfo id="47" depart="49.00" departLane="-gneE13_0" departPos="5.10" departSpeed="0.00" departDelay="2.00" arrival="134.00" arrivalLane="-gneE38_0" arrivalPos="296.80" arrivalSpeed="15.08" duration="85.00" routeLength="490.87" waitingTime="37.00" waitingCount="1" stopTime="0.00" timeLoss="53.61" rerouteNo="0" devices="tripinfo_47" vType="DEFAULT_VEHTYPE" speedFactor="1.17" vaporized=""/>
    <tripinfo id="56" depart="56.00" departLane="gneE0_0" departPos="5.10" departSpeed="0.00" departDelay="0.00" arrival="139.00" arrivalLane="-gneE20_0" arrivalPos="92.80" arrivalSpeed="14.17" duration="83.00" routeLength="284.16" waitingTime="52.00" waitingCount="1" stopTime="0.00" timeLoss="62.79" rerouteNo="0" devices="tripinfo_56" vType="DEFAULT_VEHTYPE" speedFactor="1.09" vaporized=""/>
    <tripinfo id="38" depart="38.00" departLane="gneE4_0" departPos="5.10" departSpeed="0.00" departDelay="0.00" arrival="145.00" arrivalLane="-gneE7_0" arrivalPos="92.80" arrivalSpeed="12.71" duration="107.00" routeLength="587.17" waitingTime="35.00" waitingCount="2" stopTime="0.00" timeLoss="57.80" rerouteNo="0" devices="tripinfo_38" vType="DEFAULT_VEHTYPE" speedFactor="0.92" vaporized=""/>
    <tripinfo id="5" depart="5.00" departLane="-gneE25_0" departPos="5.10" departSpeed="0.00" departDelay="0.00" arrival="148.00" arrivalLane="gneE1_0" arrivalPos="85.60" arrivalSpeed="13.80" duration="143.00" routeLength="774.81" waitingTime="71.00" waitingCount="2" stopTime="0.00" timeLoss="88.58" rerouteNo="0" devices="tripinfo_5" vType="DEFAULT_VEHTYPE" speedFactor="1.08" vaporized=""/>
    <tripinfo id="86" depart="86.00" departLane="-gneE8_0" departPos="5.10" departSpeed="0.00" departDelay="0.00" arrival="148.00" arrivalLane="gneE3_0" arrivalPos="185.60" arrivalSpeed="11.71" duration="62.00" routeLength="375.13" waitingTime="16.00" waitingCount="1" stopTime="0.00" timeLoss="29.46" rerouteNo="0" devices="tripinfo_86" vType="DEFAULT_VEHTYPE" speedFactor="0.88" vaporized=""/>
    <tripinfo id="127" depart="141.00" departLane="gneE9_0" departPos="5.10" departSpeed="0.00" departDelay="14.00" arrival="151.00" arrivalLane="gneE9_0" arrivalPos="89.60" arrivalSpeed="11.81" duration="10.00" routeLength="84.50" waitingTime="0.00" waitingCount="0" stopTime="0.00" timeLoss="2.80" rerouteNo="0" devices="tripinfo_127" vType="DEFAULT_VEHTYPE" speedFactor="0.91" vaporized=""/>
    <tripinfo id="57" depart="58.00" departLane="gneE4_0" departPos="5.10" departSpeed="0.00" departDelay="1.00" arrival="153.00" arrivalLane="gneE34_0" arrivalPos="85.60" arrivalSpeed="13.52" duration="95.00" routeLength="664.18" waitingTime="22.00" waitingCount="2" stopTime="0.00" timeLoss="46.01" rerouteNo="0" devices="tripinfo_57" vType="DEFAULT_VEHTYPE" speedFactor="1.04" vaporized=""/>
    <tripinfo id="2" depart="2.00" departLane="gneE24_0" departPos="5.10" departSpeed="0.00" departDelay="0.00" arrival="156.00" arrivalLane="gneE23_0" arrivalPos="89.60" arrivalSpeed="11.78" duration="154.00" routeLength="768.59" waitingTime="67.00" waitingCount="3" stopTime="0.00" timeLoss="92.39" rerouteNo="0" devices="tripinfo_2" vType="DEFAULT_VEHTYPE" speedFactor="0.94" vaporized=""/>
    <tripinfo id="54" depart="54.00" departLane="-gneE7_0" departPos="5.10" departSpeed="0.00" departDelay="0.00" arrival="161.00" arrivalLane="gneE7_0" arrivalPos="92.80" arrivalSpeed="13.71" duration="107.00" routeLength="964.38" waitingTime="5.00" waitingCount="1" stopTime="0.00" timeLoss="36.14" rerouteNo="0" devices="tripinfo_54" vType="DEFAULT_VEHTYPE" speedFactor="1.03" vaporized=""/>
    <tripinfo id="17" depart="17.00" departLane="-gneE36_0" departPos="5.10" departSpeed="0.00" departDelay="0.00" arrival="164.00" arrivalLane="gneE12_0" arrivalPos="85.60" arrivalSpeed="6.29" duration="147.00" routeLength="687.49" waitingTime="73.00" waitingCount="3" stopTime="0.00" timeLoss="102.18" rerouteNo="0" devices="tripinfo_17" vType="DEFAULT_VEHTYPE" speedFactor="1.12" vaporized=""/>
    <tripinfo id="27" depart="27.00" departLane="gneE19_0" departPos="5.10" departSpeed="0.00" departDelay="0.00" arrival="166.00" arrivalLane="gneE17_0" arrivalPos="92.80" arrivalSpeed="15.25" duration="139.00" routeLength="585.39" waitingTime="81.00" waitingCount="1" stopTime="0.00" timeLoss="99.56" rerouteNo="0" devices="tripinfo_27" vType="DEFAULT_VEHTYPE" speedFactor="1.16" vaporized=""/>
    <tripinfo id="87" depart="88.00" departLane="gneE3_0" departPos="5.10" departSpeed="0.00" departDelay="1.00" arrival="166.00" arrivalLane="-gneE21_0" arrivalPos="87.62" arrivalSpeed="12.43" duration="78.00" routeLength="576.83" waitingTime="14.00" waitingCount="1" stopTime="0.00" timeLoss="29.44" rerouteNo="0" devices="tripinfo_87" vType="DEFAULT_VEHTYPE" speedFactor="0.91" vaporized=""/>
    <tripinfo id="63" depart="63.00" departLane="-gneE10_0" departPos="5.10" departSpeed="0.00" departDelay="0.00" arrival="167.00" arrivalLane="gneE5_0" arrivalPos="85.60" arrivalSpeed="13.37" duration="104.00" routeLength="573.14" waitingTime="36.00" waitingCount="2" stopTime="0.00" timeLoss="60.39" rerouteNo="0" devices="tripinfo_63" vType="DEFAULT_VEHTYPE" speedFactor="1.00" vaporized=""/>
    <tripinfo id="94" depart="94.00" departLane="-gneE24_0" departPos="5.10" departSpeed="0.00" departDelay="0.00" arrival="167.00" arrivalLane="-gneE6_0" arrivalPos="92.80" arrivalSpeed="8.08" duration="73.00" routeLength="380.39" waitingTime="33.00" waitingCount="1" stopTime="0.00" timeLoss="43.93" rerouteNo="0" devices="tripinfo_94" vType="DEFAULT_VEHTYPE" speedFactor="0.97" vaporized=""/>
    <tripinfo id="11" depart="11.00" departLane="-gneE32_0" departPos="5.10" departSpeed="0.00" departDelay="0.00" arrival="170.00" arrivalLane="-gneE19_0" arrivalPos="92.80" arrivalSpeed="11.41" duration="159.00" routeLength="1010.21" waitingTime="44.00" waitingCount="2" stopTime="0.00" timeLoss="71.75" rerouteNo="0" devices="tripinfo_11" vType="DEFAULT_VEHTYPE" speedFactor="0.86" vaporized=""/>
    <tripinfo id="19" depart="19.00" departLane="gneE35_0" departPos="5.10" departSpeed="0.00" departDelay="0.00" arrival="172.00" arrivalLane="gneE13_0" arrivalPos="92.80" arrivalSpeed="12.93" duration="153.00" routeLength="789.32" waitingTime="72.00" waitingCount="2" stopTime="0.00" timeLoss="93.96" rerouteNo="0" devices="tripinfo_19" vType="DEFAULT_VEHTYPE" speedFactor="0.99" vaporized=""/>
    <tripinfo id="76" depart="82.00" departLane="-gneE6_0" departPos="5.10" departSpeed="0.00" departDelay="6.00" arrival="172.00" arrivalLane="gneE10_0" arrivalPos="96.80" arrivalSpeed="15.21" duration="90.00" routeLength="596.03" waitingTime="29.00" waitingCount="2" stopTime="0.00" timeLoss="50.39" rerouteNo="0" devices="tripinfo_76" vType="DEFAULT_VEHTYPE" speedFactor="1.14" vaporized=""/>
    <tripinfo id="117" depart="117.00" departLane="-gneE27_0" departPos="5.10" departSpeed="0.00" departDelay="0.00" arrival="172.00" arrivalLane="-gneE17_0" arrivalPos="92.80" arrivalSpeed="9.16" duration="55.00" routeLength="387.59" waitingTime="14.00" waitingCount="1" stopTime="0.00" timeLoss="26.04" rerouteNo="0" devices="tripinfo_117" vType="DEFAULT_VEHTYPE" speedFactor="1.02" vaporized=""/>
    <tripinfo id="85" depart="94.00" departLane="gneE5_0" departPos="5.10" departSpeed="0.00" departDelay="9.00" arrival="176.00" arrivalLane="gneE13_0" arrivalPos="92.80" arrivalSpeed="12.91" duration="82.00" routeLength="287.49" waitingTime="49.00" waitingCount="1" stopTime="0.00" timeLoss="58.83" rerouteNo="0" devices="tripinfo_85" vType="DEFAULT_VEHTYPE" speedFactor="0.94" vaporized=""/>
    <tripinfo id="73" depart="73.00" departLane="gneE10_0" departPos="5.10" departSpeed="0.00" departDelay="0.00" arrival="177.00" arrivalLane="gneE26_0" arrivalPos="92.80" arrivalSpeed="13.76" duration="104.00" routeLength="491.90" waitingTime="56.00" waitingCount="1" stopTime="0.00" timeLoss="67.69" rerouteNo="0" devices="tripinfo_73" vType="DEFAULT_VEHTYPE" speedFactor="1.00" vaporized=""/>
    <tripinfo id="43" depart="43.00" departLane="gneE9_0" departPos="5.10" departSpeed="0.00" departDelay="0.00" arrival="178.00" arrivalLane="gneE1_0" arrivalPos="85.60" arrivalSpeed="15.34" duration="135.00" routeLength="778.50" waitingTime="64.00" waitingCount="2" stopTime="0.00" timeLoss="84.34" rerouteNo="0" devices="tripinfo_43" vType="DEFAULT_VEHTYPE" speedFactor="1.18" vaporized=""/>
    <tripinfo id="48" depart="59.00" departLane="gneE9_0" departPos="5.10" departSpeed="0.00" departDelay="11.00" arrival="183.00" arrivalLane="gneE10_0" arrivalPos="96.80" arrivalSpeed="12.87" duration="124.00" routeLength="1076.72" waitingTime="17.00" waitingCount="1" stopTime="0.00" timeLoss="42.90" rerouteNo="0" devices="tripinfo_48" vType="DEFAULT_VEHTYPE" speedFactor="0.99" vaporized=""/>
    <tripinfo id="96" depart="96.00" departLane="-gneE27_0" departPos="5.10" departSpeed="0.00" departDelay="0.00" arrival="183.00" arrivalLane="gneE5_0" arrivalPos="85.60" arrivalSpeed="12.45" duration="87.00" routeLength="587.38" waitingTime="15.00" waitingCount="2" stopTime="0.00" timeLoss="39.63" rerouteNo="0" devices="tripinfo_96" vType="DEFAULT_VEHTYPE" speedFactor="0.94" vaporized=""/>
    <tripinfo id="111" depart="120.00" departLane="gneE10_0" departPos="5.10" departSpeed="0.00" departDelay="9.00" arrival="185.00" arrivalLane="gneE27_0" arrivalPos="92.80" arrivalSpeed="12.57" duration="65.00" routeLength="486.53" waitingTime="13.00" waitingCount="1" stopTime="0.00" timeLoss="28.45" rerouteNo="0" devices="tripinfo_111" vType="DEFAULT_VEHTYPE" speedFactor="0.98" vaporized=""/>
    <tripinfo id="102" depart="102.00" departLane="-gneE9_0" departPos="5.10" departSpeed="0.00" departDelay="0.00" arrival="188.00" arrivalLane="-gneE22_0" arrivalPos="85.60" arrivalSpeed="13.03" duration="86.00" routeLength="681.83" waitingTime="20.00" waitingCount="1" stopTime="0.00" timeLoss="34.41" rerouteNo="0" devices="tripinfo_102" vType="DEFAULT_VEHTYPE" speedFactor="0.98" vaporized=""/>
    <tripinfo id="74" depart="74.00" departLane="-gneE24_0" departPos="5.10" departSpeed="0.00" departDelay="0.00" arrival="190.00" arrivalLane="-gneE3_0" arrivalPos="185.60" arrivalSpeed="12.04" duration="116.00" routeLength="674.81" waitingTime="44.00" waitingCount="2" stopTime="0.00" timeLoss="60.04" rerouteNo="0" devices="tripinfo_74" vType="DEFAULT_VEHTYPE" speedFactor="0.90" vaporized=""/>
    <tripinfo id="129" depart="129.00" departLane="-gneE28_0" departPos="5.10" departSpeed="0.00" departDelay="0.00" arrival="191.00" arrivalLane="gneE5_0" arrivalPos="85.60" arrivalSpeed="14.33" duration="62.00" routeLength="604.32" waitingTime="4.00" waitingCount="1" stopTime="0.00" timeLoss="20.46" rerouteNo="0" devices="tripinfo_129" vType="DEFAULT_VEHTYPE" speedFactor="1.10" vaporized=""/>
    <tripinfo id="71" depart="71.00" departLane="-gneE28_0" departPos="5.10" departSpeed="0.00" departDelay="0.00" arrival="193.00" arrivalLane="gneE34_0" arrivalPos="85.60" arrivalSpeed="14.90" duration="122.00" routeLength="699.16" waitingTime="59.00" waitingCount="1" stopTime="0.00" timeLoss="73.98" rerouteNo="0" devices="tripinfo_71" vType="DEFAULT_VEHTYPE" speedFactor="1.10" vaporized=""/>
    <tripinfo id="103" depart="103.00" departLane="-gneE4_0" departPos="5.10" departSpeed="0.00" departDelay="0.00" arrival="196.00" arrivalLane="-gneE11_0" arrivalPos="92.80" arrivalSpeed="5.03" duration="93.00" routeLength="781.52" waitingTime="16.00" waitingCount="1" stopTime="0.00" timeLoss="35.21" rerouteNo="0" devices="tripinfo_103" vType="DEFAULT_VEHTYPE" speedFactor="1.01" vaporized=""/>
    <tripinfo id="110" depart="110.00" departLane="gneE7_0" departPos="5.10" departSpeed="0.00" departDelay="0.00" arrival="197.00" arrivalLane="gneE14_0" arrivalPos="89.60" arrivalSpeed="14.89" duration="87.00" routeLength="580.85" waitingTime="26.00" waitingCount="1" stopTime="0.00" timeLoss="48.79" rerouteNo="0" devices="tripinfo_110" vType="DEFAULT_VEHTYPE" speedFactor="1.15" vaporized=""/>
    <tripinfo id="164" depart="169.00" departLane="gneE3_0" departPos="5.10" departSpeed="0.00" departDelay="5.00" arrival="197.00" arrivalLane="gneE34_0" arrivalPos="85.60" arrivalSpeed="14.21" duration="28.00" routeLength="280.29" waitingTime="0.00" waitingCount="0" stopTime="0.00" timeLoss="9.03" rerouteNo="0" devices="tripinfo_164" vType="DEFAULT_VEHTYPE" speedFactor="1.10" vaporized=""/>
    <tripinfo id="141" depart="144.00" departLane="gneE18_0" departPos="5.10" departSpeed="0.00" departDelay="3.00" arrival="198.00" arrivalLane="-gneE25_0" arrivalPos="92.80" arrivalSpeed="12.69" duration="54.00" routeLength="284.16" waitingTime="12.00" waitingCount="2" stopTime="0.00" timeLoss="30.83" rerouteNo="0" devices="tripinfo_141" vType="DEFAULT_VEHTYPE" speedFactor="0.96" vaporized=""/>
    <tripinfo id="44" depart="44.00" departLane="-gneE14_0" departPos="5.10" departSpeed="0.00" departDelay="0.00" arrival="199.00" arrivalLane="-gneE11_0" arrivalPos="92.80" arrivalSpeed="8.32" duration="155.00" routeLength="885.52" waitingTime="64.00" waitingCount="3" stopTime="0.00" timeLoss="97.59" rerouteNo="0" devices="tripinfo_44" vType="DEFAULT_VEHTYPE" speedFactor="1.15" vaporized=""/>
    <tripinfo id="146" depart="147.00" departLane="gneE18_0" departPos="5.10" departSpeed="0.00" departDelay="1.00" arrival="199.00" arrivalLane="-gneE25_0" arrivalPos="92.80" arrivalSpeed="14.88" duration="52.00" routeLength="284.16" waitingTime="12.00" waitingCount="2" stopTime="0.00" timeLoss="31.44" rerouteNo="0" devices="tripinfo_146" vType="DEFAULT_VEHTYPE" speedFactor="1.10" vaporized=""/>
    <tripinfo id="31" depart="31.00" departLane="gneE11_0" departPos="5.10" departSpeed="0.00" departDelay="0.00" arrival="204.00" arrivalLane="gneE23_0" arrivalPos="89.60" arrivalSpeed="12.05" duration="173.00" routeLength="875.51" waitingTime="79.00" waitingCount="2" stopTime="0.00" timeLoss="100.59" rerouteNo="0" devices="tripinfo_31" vType="DEFAULT_VEHTYPE" speedFactor="0.89" vaporized=""/>
    <tripinfo id="35" depart="35.00" departLane="-gneE25_0" departPos="5.10" departSpeed="0.00" departDelay="0.00" arrival="204.00" arrivalLane="gneE6_0" arrivalPos="92.80" arrivalSpeed="11.19" duration="169.00" routeLength="477.06" waitingTime="109.00" waitingCount="3" stopTime="0.00" timeLoss="128.08" rerouteNo="0" devices="tripinfo_35" vType="DEFAULT_VEHTYPE" speedFactor="0.87" vaporized=""/>
    <tripinfo id="125" depart="125.00" departLane="-gneE31_0" departPos="5.10" departSpeed="0.00" departDelay="0.00" arrival="209.00" arrivalLane="gneE28_0" arrivalPos="216.45" arrivalSpeed="13.96" duration="84.00" routeLength="503.77" waitingTime="31.00" waitingCount="1" stopTime="0.00" timeLoss="47.58" rerouteNo="0" devices="tripinfo_125" vType="DEFAULT_VEHTYPE" speedFactor="1.06" vaporized=""/>
    <tripinfo id="134" depart="134.00" departLane="gneE19_0" departPos="5.10" departSpeed="0.00" departDelay="0.00" arrival="210.00" arrivalLane="-gneE0_0" arrivalPos="92.80" arrivalSpeed="13.04" duration="76.00" routeLength="394.48" waitingTime="26.00" waitingCount="1" stopTime="0.00" timeLoss="43.92" rerouteNo="0" devices="tripinfo_134" vType="DEFAULT_VEHTYPE" speedFactor="0.95" vaporized=""/>
    <tripinfo id="161" depart="161.00" departLane="gneE3_0" departPos="5.10" departSpeed="0.00" departDelay="0.00" arrival="214.00" arrivalLane="gneE36_0" arrivalPos="292.80" arrivalSpeed="13.27" duration="53.00" routeLength="582.12" waitingTime="0.00" waitingCount="0" stopTime="0.00" timeLoss="9.21" rerouteNo="0" devices="tripinfo_161" vType="DEFAULT_VEHTYPE" speedFactor="0.99" vaporized=""/>
    <tripinfo id="107" depart="107.00" departLane="gneE7_0" departPos="5.10" departSpeed="0.00" departDelay="0.00" arrival="217.00" arrivalLane="gneE9_0" arrivalPos="89.60" arrivalSpeed="13.41" duration="110.00" routeLength="773.34" waitingTime="27.00" waitingCount="1" stopTime="0.00" timeLoss="51.99" rerouteNo="0" devices="tripinfo_107" vType="DEFAULT_VEHTYPE" speedFactor="1.02" vaporized=""/>
    <tripinfo id="169" depart="170.00" departLane="-gneE7_0" departPos="5.10" departSpeed="0.00" departDelay="1.00" arrival="219.00" arrivalLane="-gneE3_0" arrivalPos="185.60" arrivalSpeed="13.95" duration="49.00" routeLength="475.02" waitingTime="3.00" waitingCount="1" stopTime="0.00" timeLoss="15.05" rerouteNo="0" devices="tripinfo_169" vType="DEFAULT_VEHTYPE" speedFactor="1.06" vaporized=""/>
    <tripinfo id="112" depart="112.00" departLane="-gneE12_0" departPos="5.10" departSpeed="0.00" departDelay="0.00" arrival="220.00" arrivalLane="gneE14_0" arrivalPos="89.60" arrivalSpeed="12.81" duration="108.00" routeLength="668.38" waitingTime="31.00" waitingCount="2" stopTime="0.00" timeLoss="56.83" rerouteNo="0" devices="tripinfo_112" vType="DEFAULT_VEHTYPE" speedFactor="1.00" vaporized=""/>
    <tripinfo id="176" depart="176.00" departLane="gneE6_0" departPos="5.10" departSpeed="0.00" departDelay="0.00" arrival="228.00" arrivalLane="-gneE17_0" arrivalPos="92.80" arrivalSpeed="8.74" duration="52.00" routeLength="469.96" waitingTime="1.00" waitingCount="1" stopTime="0.00" timeLoss="20.17" rerouteNo="0" devices="tripinfo_176" vType="DEFAULT_VEHTYPE" speedFactor="1.12" vaporized=""/>
    <tripinfo id="131" depart="132.00" departLane="-gneE34_0" departPos="5.10" departSpeed="0.00" departDelay="1.00" arrival="230.00" arrivalLane="-gneE2_0" arrivalPos="185.60" arrivalSpeed="13.12" duration="98.00" routeLength="375.13" waitingTime="59.00" waitingCount="1" stopTime="0.00" timeLoss="68.13" rerouteNo="0" devices="tripinfo_131" vType="DEFAULT_VEHTYPE" speedFactor="0.96" vaporized=""/>
    <tripinfo id="105" depart="105.00" departLane="-gneE28_0" departPos="5.10" departSpeed="0.00" departDelay="0.00" arrival="231.00" arrivalLane="gneE3_0" arrivalPos="185.60" arrivalSpeed="7.62" duration="126.00" routeLength="993.79" waitingTime="25.00" waitingCount="1" stopTime="0.00" timeLoss="54.36" rerouteNo="0" devices="tripinfo_105" vType="DEFAULT_VEHTYPE" speedFactor="1.03" vaporized=""/>
    <tripinfo id="82" depart="82.00" departLane="gneE35_0" departPos="5.10" departSpeed="0.00" departDelay="0.00" arrival="234.00" arrivalLane="-gneE12_0" arrivalPos="85.60" arrivalSpeed="13.06" duration="152.00" routeLength="1166.21" waitingTime="24.00" waitingCount="3" stopTime="0.00" timeLoss="72.87" rerouteNo="0" devices="tripinfo_82" vType="DEFAULT_VEHTYPE" speedFactor="1.12" vaporized=""/>
    <tripinfo id="66" depart="67.00" departLane="gneE38_0" departPos="5.10" departSpeed="0.00" departDelay="1.00" arrival="236.00" arrivalLane="gneE6_0" arrivalPos="92.80" arrivalSpeed="10.66" duration="169.00" routeLength="690.87" waitingTime="81.00" waitingCount="3" stopTime="0.00" timeLoss="109.19" rerouteNo="0" devices="tripinfo_66" vType="DEFAULT_VEHTYPE" speedFactor="0.85" vaporized=""/>
    <tripinfo id="194" depart="199.00" departLane="gneE6_0" departPos="5.10" departSpeed="0.00" departDelay="5.00" arrival="236.00" arrivalLane="gneE23_0" arrivalPos="89.60" arrivalSpeed="15.47" duration="37.00" routeLength="284.60" waitingTime="8.00" waitingCount="1" stopTime="0.00" timeLoss="19.36" rerouteNo="0" devices="tripinfo_194" vType="DEFAULT_VEHTYPE" speedFactor="1.16" vaporized=""/>
    <tripinfo id="15" depart="15.00" departLane="gneE3_0" departPos="5.10" departSpeed="0.00" departDelay="0.00" arrival="237.00" arrivalLane="gneE26_0" arrivalPos="92.80" arrivalSpeed="13.32" duration="222.00" routeLength="782.22" waitingTime="123.00" waitingCount="5" stopTime="0.00" timeLoss="165.32" rerouteNo="0" devices="tripinfo_15" vType="DEFAULT_VEHTYPE" speedFactor="1.03" vaporized=""/>
    <tripinfo id="50" depart="51.00" departLane="-gneE1_0" departPos="5.10" departSpeed="0.00" departDelay="1.00" arrival="240.00" arrivalLane="gneE26_0" arrivalPos="92.80" arrivalSpeed="12.61" duration="189.00" routeLength="876.85" waitingTime="83.00" waitingCount="4" stopTime="0.00" timeLoss="120.32" rerouteNo="0" devices="tripinfo_50" vType="DEFAULT_VEHTYPE" speedFactor="0.97" vaporized=""/>
    <tripinfo id="179" depart="179.00" departLane="-gneE17_0" departPos="5.10" departSpeed="0.00" departDelay="0.00" arrival="240.00" arrivalLane="-gneE5_0" arrivalPos="85.60" arrivalSpeed="9.51" duration="61.00" routeLength="182.33" waitingTime="26.00" waitingCount="2" stopTime="0.00" timeLoss="47.54" rerouteNo="0" devices="tripinfo_179" vType="DEFAULT_VEHTYPE" speedFactor="1.07" vaporized=""/>
    <tripinfo id="67" depart="67.00" departLane="-gneE14_0" departPos="5.10" departSpeed="0.00" departDelay="0.00" arrival="243.00" arrivalLane="-gneE9_0" arrivalPos="89.60" arrivalSpeed="11.46" duration="176.00" routeLength="688.08" waitingTime="97.00" waitingCount="2" stopTime="0.00" timeLoss="116.50" rerouteNo="0" devices="tripinfo_67" vType="DEFAULT_VEHTYPE" speedFactor="0.85" vaporized=""/>